
#(C) 2015 by Fachinformationszentrum Karlsruhe.  All rights reserved.
data_69757-ICSD
_database_code_ICSD 69757
_audit_creation_date 1994-01-19
_audit_update_record 1999-01-19
_chemical_name_systematic 'Copper oxide'
_chemical_formula_structural 'Cu O'
_chemical_formula_sum 'Cu1 O1'
_chemical_name_structure_type CuO(mS8)
_chemical_name_mineral Tenorite
_exptl_crystal_density_diffrn 6.48
_publ_section_title

;
CuO: X-ray single-crystal structure determination at 196K and room temperature
;
loop_
_citation_id
_citation_journal_full
_citation_year
_citation_journal_volume
_citation_page_first
_citation_page_last
_citation_journal_id_ASTM
primary 'Journal of Physics: Condensed Matter' 1991 3 8173 8180 JCOMEL
loop_
_publ_author_name
'Asbrink, S.'
'Waskowska, A.'
_cell_length_a 4.6927(4)
_cell_length_b 3.4283(4)
_cell_length_c 5.1370(6)
_cell_angle_alpha 90.
_cell_angle_beta 99.546(9)
_cell_angle_gamma 90.
_cell_volume 81.5
_cell_formula_units_Z 4
_symmetry_space_group_name_H-M 'C 1 c 1'
_symmetry_Int_Tables_number 9
_refine_ls_R_factor_all 0.042
loop_
_symmetry_equiv_pos_site_id
_symmetry_equiv_pos_as_xyz
1 'x, -y, z+1/2'
2 'x, y, z'
3 'x+1/2, -y+1/2, z+1/2'
4 'x+1/2, y+1/2, z'
loop_
_atom_type_symbol
_atom_type_oxidation_number
Cu2+ 2
O2- -2
loop_
_atom_site_label
_atom_site_type_symbol
_atom_site_symmetry_multiplicity
_atom_site_Wyckoff_symbol
_atom_site_fract_x
_atom_site_fract_y
_atom_site_fract_z
_atom_site_B_iso_or_equiv
_atom_site_occupancy
_atom_site_attached_hydrogens
Cu1 Cu2+ 4 a 0.25 0.2467(3) 0 . 1. 0
O1 O2- 4 a -.0104(14) 0.4177(8) 0.2602(14) . 1. 0
loop_
_atom_site_aniso_label
_atom_site_aniso_type_symbol
_atom_site_aniso_U_11
_atom_site_aniso_U_22
_atom_site_aniso_U_33
_atom_site_aniso_U_12
_atom_site_aniso_U_13
_atom_site_aniso_U_23
Cu1 Cu2+ 0.0066(1) 0.0087(1) 0.0058(1) 0.0018(1) 0.0022(1) 0.0000(1)
O1 O2- 0.0062(6) 0.0119(7) 0.0054(6) -.002(1) 0.0031(4) -.0005(11)
#End of TTdata_69757-ICSD